192
Lattice="12.501096725463867 0.0 0.0 -5.300000225361146e-07 12.501096725463867 0.0 -5.300000225361146e-07 -5.300000225361146e-07 12.501096725463867" Properties=species:S:1:pos:R:3:force:R:3:forces:R:3 TotEnergy=-30020.27288432 cutoff=-1.0 nneightol=1.2 energy=-30020.2734375 pbc="T T T"
O        5.34707117       2.07860804      11.69280529      -4.59229912      -0.55727122       1.30283463      -4.59229898      -0.55727124       1.30283463
H        4.29732656       1.73390734      11.55670071       4.15519098       0.73170516       0.18294532       4.15519094       0.73170519       0.18294533
H        5.25990486       2.37226963       0.15590936       0.48493632      -0.20313053      -1.56803366       0.48493633      -0.20313053      -1.56803370
O        0.17145395       9.99218845       1.75606930      -3.53810046      -0.12761363      -0.72641383      -3.53810048      -0.12761363      -0.72641385
H        0.71037805       9.95715714       2.49707079       2.50473289      -0.18594785       2.41760848       2.50473285      -0.18594785       2.41760850
H       11.79588890      10.17856503       2.24519300       0.89302647       0.09639478      -1.43044878       0.89302647       0.09639478      -1.43044877
O        8.07413292       9.43993950       8.87329674      -2.18737132       2.17895867      -0.17990679      -2.18737125       2.17895865      -0.17990679
H        7.06366920       9.65790749       8.89356422       2.27286565       0.44996314      -0.17081948       2.27286553       0.44996315      -0.17081948
H        8.01322460       8.56557941       9.14090157      -0.04717049      -3.15838964       0.29467158      -0.04717049      -3.15838957       0.29467157
O       10.19576359       2.14317822       1.75845063       0.75185233       0.08916741       5.11042786       0.75185233       0.08916741       5.11042786
H        9.87725163       2.59903789       1.07518232      -2.01135358       3.26254503      -4.28744853      -2.01135349       3.26254511      -4.28744841
H       10.55443954       1.40279591       1.36673772       1.22027136      -3.10764120      -1.13392857       1.22027135      -3.10764122      -1.13392854
O        9.06528187       6.00182199       9.15185547      -4.30822819      -0.78195480      -0.20753792      -4.30822802      -0.78195482      -0.20753792
H        9.76152039       6.47517109       9.54286385       1.44846707       1.34706789       1.23914326       1.44846702       1.34706783       1.23914325
H        8.09879303       6.27180815       9.56874084       3.00191229      -0.55344028      -0.81190816       3.00191236      -0.55344027      -0.81190819
O        1.05843914       9.45793152      11.37815666      -4.42810331       1.26320879       2.92217209      -4.42810345       1.26320875       2.92217207
H        1.94576347       9.31701183      11.20448112       3.06217895      -0.48657617       0.39213183       3.06217885      -0.48657617       0.39213184
H        0.81236112       9.68526554      12.38152981       1.32347545      -0.69222330      -3.40904650       1.32347548      -0.69222331      -3.40904641
O        3.04248309       8.31062222       7.34889555       2.64992309       1.04372912       0.78627426       2.64992309       1.04372907       0.78627425
H        4.00940657       8.64691448       7.47891426      -2.08294853      -1.27721102      -0.77029742      -2.08294845      -1.27721107      -0.77029741
H        2.58089256       9.12386131       7.55135870      -0.56727282       0.15603255      -0.23279901      -0.56727284       0.15603255      -0.23279901
O        2.09449387       3.89399290       5.94615269      -2.49515810       1.16415960      -4.62104919      -2.49515820       1.16415966      -4.62104940
H        1.19378150       4.02958393       6.24439669      -0.38779643      -0.03910237       0.23650140      -0.38779643      -0.03910237       0.23650140
H        2.59476757       3.72333312       6.65376854       2.91859825      -1.05126760       4.34342660       2.91859818      -1.05126762       4.34342670
O        7.26576185       6.00399160       0.80219561       7.48710438       0.30997325      -1.08516502       7.48710442       0.30997324      -1.08516502
H        7.99925423       5.19883251       0.62472546      -2.42886991       2.93274446       0.13729538      -2.42886996       2.93274450       0.13729538
H        6.54068327       5.51407957       0.90253818      -5.03948598      -2.98352375       0.81416044      -5.03948593      -2.98352385       0.81416047
O        6.41405106       7.85224915       3.25964165       0.42201011      -2.38912065       0.63000774       0.42201012      -2.38912058       0.63000774
H        6.76801777       6.93846560       3.00175762      -0.76809141       2.49489585       0.10181055      -0.76809138       2.49489594       0.10181055
H        6.62767982       8.51917076       2.61958599       0.50244450      -0.19653205      -0.68825866       0.50244451      -0.19653206      -0.68825865
O        1.06128073       1.98241425      10.95095158       2.61599481      -0.22564929      -5.73417754       2.61599469      -0.22564930      -5.73417759
H        0.66428143       2.12504339      11.69545174      -4.15317523       2.33465954       7.02903660      -4.15317535       2.33465958       7.02903652
H        1.57903838       1.25594914      11.24057102       1.90018422      -1.86219873      -0.73986584       1.90018427      -1.86219871      -0.73986584
O       11.71878815       0.76209986       7.03429985       3.65857722      -0.89069191      -0.75225856       3.65857720      -0.89069194      -0.75225854
H        0.18437645       0.66379988       6.60169744      -3.55081200       0.39145151       1.14710804      -3.55081201       0.39145151       1.14710808
H       11.19426727       1.27541757       6.43537712       0.05590916       0.25953026      -0.45502564       0.05590916       0.25953025      -0.45502564
O       11.81552124       2.52410650       9.21329308       1.24999332       1.94789875       3.36103886       1.24999332       1.94789875       3.36103892
H        0.03337785       2.32180214       9.98033524      -1.34380773       1.18029070      -1.33056141      -1.34380770       1.18029070      -1.33056140
H       11.97956657       1.70871854       8.85144138      -0.32299846      -3.12212679      -2.63767436      -0.32299846      -3.12212682      -2.63767433
O       11.29216576       7.22252798      10.59243393       4.69380113      -7.00779929      -2.84425737       4.69380093      -7.00779915      -2.84425735
H       12.09365749       7.23734522       9.91281223      -2.12843649       0.09421757       1.90782553      -2.12843657       0.09421757       1.90782559
H       10.97412968       8.01952171      10.70017529      -2.36512712       6.87739293       0.96548016      -2.36512709       6.87739277       0.96548015
O        6.82299948      12.30580425      11.02154446      -1.65192876      -1.02375165      -1.12532566      -1.65192878      -1.02375162      -1.12532568
H        6.32970047       0.59217048      11.28560352      -0.04059412       0.53254749       0.20603177      -0.04059412       0.53254747       0.20603177
H        6.06103706      11.73889637      10.56221867       2.11642429       0.66015650       1.10005685       2.11642432       0.66015649       1.10005689
O        3.43504810       6.28059244       5.29148102       2.76909373      -1.97597006      -3.38400395       2.76909375      -1.97597003      -3.38400388
H        3.11138725       6.88480711       5.84931326      -1.85160065       4.08693847       3.69422300      -1.85160065       4.08693838       3.69422293
H        2.81178308       5.58864069       5.34781218      -1.09512033      -1.75874782       0.01903285      -1.09512031      -1.75874782       0.01903285
O        3.02941251       5.81242943       1.49463987       0.24353440       0.07000189       0.04396741       0.24353440       0.07000189       0.04396741
H        2.47461796       5.98494148       0.73933464      -0.40189636      -0.30318348      -0.79266088      -0.40189636      -0.30318347      -0.79266089
H        3.00760508       6.63429451       1.97467244       0.18529788       0.48890713       0.59381175       0.18529788       0.48890713       0.59381175
O       10.40113640       7.98877668       4.81934404       4.35904348      -1.54050228      -8.63037119       4.35904360      -1.54050231      -8.63037109
H        9.89381504       7.43430471       3.94863033       2.77732641       2.67169520       2.01313793       2.77732635       2.67169523       2.01313782
H        9.69934177       7.83134651       5.27197552      -6.76817246      -0.90841709       6.16062074      -6.76817226      -0.90841711       6.16062069
O        1.93510056       5.29939222      11.33307076      -1.13940502      -5.53234592       4.90600972      -1.13940501      -5.53234577       4.90600967
H        1.69136155       5.82423019      10.67059422      -1.38560359       3.68267875      -4.71272445      -1.38560355       3.68267870      -4.71272469
H        1.00146782       4.66522121      11.43895912       2.93433340       2.28343288       0.05450893       2.93433332       2.28343296       0.05450893
O        7.87452745      12.43042564       8.37782764      -0.45149706      -0.71311094       2.06845779      -0.45149705      -0.71311092       2.06845784
H        7.96633959       0.83699960       8.12583351      -0.25014624       1.17181121      -0.27094904      -0.25014624       1.17181122      -0.27094904
H        7.50235701      -0.00178862       9.34368229       0.62061293      -0.39364107      -2.03872041       0.62061292      -0.39364108      -2.03872037
O        3.07790637      11.51166821       8.84487915      -4.44476406      -2.76070680       1.76881626      -4.44476414      -2.76070690       1.76881623
H        3.01794529      12.19843388       8.24807358       1.27905193       3.07047333      -2.50778736       1.27905190       3.07047343      -2.50778747
H        1.96009886      11.37852669       8.80132866       2.83043512      -0.72089110       0.73137606       2.83043504      -0.72089112       0.73137605
O        8.53494072       3.74781299      12.30818558      -2.14238729       1.55424226       7.78406681      -2.14238739       1.55424225       7.78406668
H        7.72619915       3.27897787      -0.02384843      -0.28511582      -0.40232317      -0.58784679      -0.28511581      -0.40232316      -0.58784682
H        8.85678577       3.60227323      11.51473713       2.25509418      -1.36945192      -6.86803411       2.25509429      -1.36945188      -6.86803389
O        9.92530060       9.94509220       6.74325228      -2.48662718       0.27024610       1.79956151      -2.48662710       0.27024609       1.79956150
H        9.90550900      10.90406704       6.53999519      -0.17384310      -1.06377344       0.68377979      -0.17384310      -1.06377339       0.68377978
H        9.14418221       9.73500824       7.44689941       2.51685307       1.13630941      -2.29702373       2.51685309       1.13630939      -2.29702377
O        3.86278725       1.04153717       7.30190468       0.03877635       3.12902763      -0.37639462       0.03877635       3.12902761      -0.37639463
H        3.62924027       1.21521842       6.34001923       0.59171887      -0.21302105       1.84039578       0.59171885      -0.21302105       1.84039581
H        4.03371143       1.98359954       7.74339724      -0.36020644      -2.59842904      -1.40946343      -0.36020643      -2.59842896      -1.40946341
O        3.81770134       8.63537788      11.19580269      -0.71167627       3.18153985       0.43668956      -0.71167630       3.18153977       0.43668956
H        4.17623472       8.59558392      12.07857609       0.45354623      -0.18335104       0.43443830       0.45354623      -0.18335104       0.43443829
H        3.83617496       7.83981323      10.76378155       0.23954147      -3.09465713      -1.11876934       0.23954147      -3.09465718      -1.11876929
O        4.66022539       3.68789411       8.35909462      -2.66237752      -0.86497059       5.67792179      -2.66237760      -0.86497056       5.67792177
H        4.31488466       4.21773291       9.32246208       1.51287321      -2.24628558      -3.38645164       1.51287317      -2.24628568      -3.38645172
H        4.82967854       4.44905233       7.87997770       1.13262759       2.50880037      -2.04887112       1.13262761       2.50880027      -2.04887104
O        8.25103664       3.47074103       5.11342335       2.44254818       1.04182650       0.28152039       2.44254827       1.04182649       0.28152040
H        8.01227188       3.11367345       6.00002289       0.45301401       0.38564802      -0.28135121       0.45301402       0.38564801      -0.28135121
H        9.27748203       3.69490051       5.04561472      -2.68634020      -1.22416401       0.71288983      -2.68634009      -1.22416401       0.71288985
O        0.67254716       2.55169249       1.31723320       2.75917956       0.75035594       2.01959140       2.75917959       0.75035596       2.01959133
H        0.10880095       2.21487117       2.05117559       0.63359186       0.38527418      -0.35491613       0.63359183       0.38527417      -0.35491613
H        1.61411226       2.89963174       1.83684289      -3.52314178      -1.08237795      -1.26973939      -3.52314186      -1.08237791      -1.26973939
O       12.26484585       4.73546410       7.75609732      -3.66459875      -2.38002409      -1.07313740      -3.66459870      -2.38002419      -1.07313740
H       11.97739697       3.84240341       8.22134972       1.64727506       1.60082037      -0.13034208       1.64727509       1.60082042      -0.13034208
H       11.42456532       4.72344637       7.16378927       2.52851045       0.73517615       0.97462300       2.52851033       0.73517615       0.97462302
O        5.54635906       5.79576063       7.18527412       6.66219158       1.30325115       1.47882666       6.66219139       1.30325115       1.47882664
H        6.48887682       6.37505054       6.95190668      -3.58520822      -2.53945821       0.94418628      -3.58520818      -2.53945827       0.94418627
H        4.93336582       6.13295221       6.62127686      -2.64776851       1.58010756      -2.70454361      -2.64776850       1.58010757      -2.70454359
O        1.51946354      12.37814331       0.90840679      -2.50243946      -0.87135207       0.58835586      -2.50243950      -0.87135208       0.58835584
H        0.64515167      11.93194103       1.13024843       1.74274013       0.25366608      -0.40812820       1.74274015       0.25366607      -0.40812820
H        1.24341297       0.80128014       0.97623670       0.32067984       0.56242372       0.09492514       0.32067984       0.56242371       0.09492514
O       12.23103142       5.54106760       3.95018077      -0.16939303       3.04512739      -4.25349454      -0.16939303       3.04512739      -4.25349474
H       12.17118168       5.97150040       2.92663574       0.36291535      -1.88690190       3.93178781       0.36291534      -1.88690186       3.93178773
H       12.06651020       6.36684847       4.45341253      -0.09742168      -0.71897306      -0.05955550      -0.09742168      -0.71897304      -0.05955550
O        6.36086893      11.74911022       5.87339067       5.61734660      -2.96499638       0.96586068       5.61734676      -2.96499634       0.96586066
H        5.77570486      -0.10936770       6.00420332      -4.55945584       4.27750351       0.48991192      -4.55945587       4.27750349       0.48991191
H        7.04049110      12.04095078       6.58846807      -1.20969898      -1.24112301      -1.02648216      -1.20969903      -1.24112296      -1.02648211
O       10.48940372      10.97116661       3.33538270      -2.82207389      -0.12423983       1.41396286      -2.82207394      -0.12423983       1.41396284
H        9.50116539      11.33344078       3.39622760       2.46863974      -0.64594858      -0.71194880       2.46863985      -0.64594859      -0.71194881
H       10.39621544      10.29805279       4.04875088       0.50140012       0.30201003      -0.67120196       0.50140011       0.30201003      -0.67120194
O       10.48104286      12.16276741       0.50473821       4.55424679       1.47808618      -1.77217926       4.55424690       1.47808623      -1.77217925
H       10.69498920      -0.03293758      12.07751751      -0.43728606      -0.76316004       1.46123517      -0.43728605      -0.76316005       1.46123517
H        9.58392811      12.08037472       0.52576613      -3.80471360      -0.75582725       0.10916596      -3.80471349      -0.75582725       0.10916596
O        3.73086333      11.91998100       2.27073121       1.94530708      -2.82742179       1.63963889       1.94530714      -2.82742190       1.63963890
H        3.91652513      10.96804428       2.63967347      -1.29122867       3.02820953      -0.71960041      -1.29122865       3.02820945      -0.71960044
H        2.80415773      11.99443626       2.01794314      -0.48370424      -0.28168700      -0.39237145      -0.48370424      -0.28168699      -0.39237145
O        6.71790457       6.88798237      10.45580101      -1.97475650      -1.77501262      -1.70880671      -1.97475648      -1.77501261      -1.70880675
H        5.90021992       6.22656345      10.27990246       2.55120301       2.06354698       1.22347496       2.55120301       2.06354690       1.22347498
H        6.99937391       6.83781624      11.37053680      -0.40336344      -0.49851174       0.49551846      -0.40336344      -0.49851173       0.49551845
O        8.36518002       6.44781256       6.41463327       0.34262780      -4.14480372      -0.95943807       0.34262779      -4.14480352      -0.95943809
H        8.30051517       5.53344727       5.89937353      -0.34004436       2.88137382       0.87351179      -0.34004435       2.88137388       0.87351179
H        8.86736965       6.03685379       7.16029692      -0.51588160       1.29816551       0.10000615      -0.51588160       1.29816556       0.10000615
O        5.47402096      10.50982952       9.70421028       0.03245812       1.43306616      -1.54996394       0.03245812       1.43306613      -1.54996395
H        4.65125608      10.86871815       9.25504494       0.71377429      -1.08297958       0.74964632       0.71377426      -1.08297956       0.74964631
H        5.30680084       9.73654270      10.21730042      -1.11249071      -0.70108332       0.61715736      -1.11249065      -0.70108330       0.61715734
O        9.44179153       7.65047359       2.19734478       0.96887916      -2.07233501      -2.69400209       0.96887916      -2.07233500      -2.69400215
H        8.56023502       7.12812281       1.92368615       3.50329801       1.42065287       0.00262510       3.50329804       1.42065287       0.00262510
H       10.37330246       7.46674347       1.52903104      -4.17425314       0.24522052       2.54297548      -4.17425299       0.24522053       2.54297543
O       11.24803162       3.45794559       5.11766243      -1.92191518       4.22619457       3.13894695      -1.92191517       4.22619438       3.13894701
H       11.45711040       4.10119724       4.45339680       0.72881010       0.38403285      -0.93134105       0.72881007       0.38403285      -0.93134105
H       11.33254147       2.60968494       4.88551760       0.96163379      -4.75149155      -2.25329955       0.96163380      -4.75149155      -2.25329947
O        7.75694418       2.18265486       2.91137433      -5.81074499      -1.58534233       0.08043131      -5.81074476      -1.58534229       0.08043131
H        7.80298233       2.66365576       3.71015143       0.67672469       1.29333183       1.96313511       0.67672467       1.29333186       1.96313512
H        8.50408936       2.20780134       2.43700933       4.86658442       0.27078603      -2.24286601       4.86658430       0.27078602      -2.24286604
O        7.68037224      10.93142509       0.84597445       0.62058722      -1.67479101       2.30373431       0.62058723      -1.67479098       2.30373430
H        7.44462395      11.52738476       0.17288272      -0.98947370       1.52733309      -1.49828991      -0.98947370       1.52733314      -1.49828994
H        7.58840132      11.30518341       1.75528085       0.12170009      -0.01073950      -1.00700862       0.12170009      -0.01073950      -1.00700867
O        7.34624958       2.67171001       7.83483887       3.95801820       0.62192419       3.38091349       3.95801830       0.62192416       3.38091350
H        7.98475504       2.94452715       8.82540607      -1.95024360      -0.88506633      -3.90382449      -1.95024359      -0.88506633      -3.90382457
H        6.46368790       2.91948128       8.06100941      -1.22798981       0.38117430       0.33919384      -1.22798979       0.38117430       0.33919385
O        0.07298888       8.92663765       6.49051714       1.45488454      -2.95251111      -4.79367821       1.45488453      -2.95251107      -4.79367828
H       12.35549450       9.42644501       7.18363333      -1.26829957       3.25310394       4.43331237      -1.26829958       3.25310397       4.43331242
H       11.78874493       8.92854214       5.93096542      -0.28683178      -0.42352089       0.25083736      -0.28683177      -0.42352089       0.25083736
O        5.72405720       9.08570766       6.50374651       2.69817242       3.90807709      -4.28754109       2.69817233       3.90807700      -4.28754091
H        5.74432468      10.22878361       6.29530382       0.00527950      -4.23129049       1.08782869       0.00527950      -4.23129034       1.08782864
H        6.36441422       8.87123299       5.65055418      -2.58542954       0.27315711       3.37722653      -2.58542943       0.27315712       3.37722659
O        0.41611797      10.74319649       8.79153824      -2.61319231       0.37944909       3.60492344      -2.61319232       0.37944910       3.60492349
H       12.01353931      11.34127331       8.99019146       3.07191829      -1.97563581      -0.64494585       3.07191825      -1.97563577      -0.64494586
H        0.48541161      10.17639542       9.69812489      -0.23145484       1.82954572      -2.52673125      -0.23145483       1.82954574      -2.52673125
O        9.35511208       3.34618855       9.81078625      -1.69375033       3.09516106      -0.34911058      -1.69375038       3.09516096      -0.34911057
H       10.20449448       2.94583440       9.75390053       1.70467237      -0.98329791      -0.42489385       1.70467234      -0.98329788      -0.42489386
H        9.51619339       4.35023880       9.57159901      -0.79519599      -2.08814215       0.38460929      -0.79519600      -2.08814216       0.38460928
O        4.00001860       1.37382340       4.47643709      -0.73102639       2.26082774       1.90830890      -0.73102641       2.26082778       1.90830886
H        3.53979325       2.22231150       4.27011633       0.65412983      -1.22693052      -0.07163865       0.65412980      -1.22693050      -0.07163865
H        4.14439964       0.92301732       3.68148065       0.20418777      -1.07371333      -2.11601806       0.20418777      -1.07371330      -2.11601806
O        3.10261369       0.22286245      11.26131439      -0.63152983      -3.24241843      -0.00159048      -0.63152981      -3.24241853      -0.00159048
H        2.75624585      11.96834850      11.87029171       0.93623129       2.41607096      -1.19694631       0.93623132       2.41607094      -1.19694626
H        3.19076920      12.21139908      10.37663555      -0.13029323       1.22619004       1.14008893      -0.13029324       1.22619009       1.14008892
O        4.50573778       5.03463411      10.92110634      -8.30337827      10.80094806      -3.63521104      -8.30337811      10.80094814      -3.63521099
H        4.91036749       4.35906029      11.12928486       6.15481004     -10.97706864       3.82118408       6.15480995     -10.97706890       3.82118416
H        3.47617579       5.01709747      11.20246983       2.03512600      -0.12200143      -0.57372114       2.03512597      -0.12200143      -0.57372111
O        3.74937391       8.34200287       3.43015313      -0.25151767      -2.75984805       1.90196342      -0.25151768      -2.75984812       1.90196347
H        3.64493561       7.55606842       4.12060785      -0.18868248       1.79549403      -1.70045062      -0.18868248       1.79549408      -1.70045066
H        4.66752815       8.09127808       3.20545387       0.15247620       0.73313984      -0.13138132       0.15247621       0.73313981      -0.13138132
O        5.59917116       3.58881640       1.57086253       1.94547677      -2.04194457       2.40671729       1.94547677      -2.04194450       2.40671730
H        6.46945620       3.06425357       1.96215200      -2.89558688       1.55305441      -0.75045365      -2.89558697       1.55305445      -0.75045365
H        4.91865969       3.47243428       2.29872465       1.18129858       0.23967723      -1.33242803       1.18129861       0.23967724      -1.33242798
O       10.48098946      12.07630062       9.89788914       7.45630256      -0.25924178       2.42444761       7.45630264      -0.25924179       2.42444754
H       10.10744381      11.39239120      10.35816765      -1.51036895      -3.26631427       1.94076651      -1.51036894      -3.26631427       1.94076645
H        9.85746002      12.44217300       9.43644714      -5.58412794       3.23669002      -4.42238518      -5.58412790       3.23669004      -4.42238522
O        2.78051925       3.59754252       2.83048964      -0.03902164       2.13616008       0.86486774      -0.03902164       2.13616014       0.86486775
H        2.88332248       4.42215395       2.24356842       0.08793379      -0.75397092       0.12521633       0.08793379      -0.75397092       0.12521634
H        2.56687999       4.11845398       3.66070509      -0.11095391      -1.52223202      -1.07392930      -0.11095391      -1.52223206      -1.07392931
O        9.65975952       9.70521545      11.16029453      -1.65235556      -0.85727785      -2.54823596      -1.65235555      -0.85727787      -2.54823589
H        9.02162457       9.48216724      10.21322632       1.50512390       1.47262515       4.13762006       1.50512385       1.47262514       4.13761997
H        9.20434952       9.75707531      12.03909874      -0.04651846      -0.16076184      -1.70679096      -0.04651846      -0.16076183      -1.70679092
O        5.16429853       9.42300606       0.88952571      -4.16508458       0.62631563       2.04759585      -4.16508436       0.62631565       2.04759574
H        4.85303640      10.21185017       1.41722655       0.04001202      -1.39465387      -1.33638753       0.04001202      -1.39465392      -1.33638752
H        6.02849245       9.65404415       0.81367344       4.44526800       0.94921536      -1.00430896       4.44526815       0.94921535      -1.00430894
O        7.91410971      11.97438049       3.40586925      -1.06585089      -1.66880548       2.14855794      -1.06585085      -1.66880548       2.14855790
H        7.39027739      11.82367134       4.25865412       0.74401560      -0.26841342      -1.35571709       0.74401557      -0.26841342      -1.35571706
H        7.84679842       0.41134161       3.36718106       0.08773890       1.89708346      -0.65277743       0.08773890       1.89708340      -0.65277743
O        1.63547504       9.82248116       4.41233778       1.92625520      -2.47844079       1.29408774       1.92625523      -2.47844076       1.29408777
H        2.59119034       9.14730453       4.47600842      -4.05016141       2.99164330      -0.37746780      -4.05016136       2.99164319      -0.37746781
H        0.96917748       9.63806343       5.18982601       1.99210116      -0.45769805      -1.22914681       1.99210119      -0.45769805      -1.22914684
O       12.11159611       0.87282491       3.75236392       2.73443526      -0.76243499       1.31728423       2.73443532      -0.76243502       1.31728423
H       11.36863136       0.41309479       3.36773658       0.30244917      -0.97809914       0.33101053       0.30244917      -0.97809917       0.33101052
H        0.40350187       0.24001573       4.20079374      -2.94106970       2.19494065      -1.47881637      -2.94106960       2.19494057      -1.47881639
O       11.95104408       4.64996481      11.80726624       3.75663910     -13.14600001       5.90356182       3.75663900     -13.14599991       5.90356159
H       11.63152695       5.40147066      11.73005962      -4.93201386      11.38124609      -1.36547185      -4.93201399      11.38124657      -1.36547184
H       11.76726055       4.33522081       0.36852536       1.07559023       1.25297580      -4.66583267       1.07559025       1.25297582      -4.66583252
O        1.72134471      12.36972904       5.18300486      -7.67669754      -2.61825739       3.26440651      -7.67669773      -2.61825728       3.26440644
H        2.44599462       0.10202748       4.80209255       7.27473124       2.87876158      -3.59989436       7.27473116       2.87876153      -3.59989429
H        1.61326027      11.44530964       4.87739468       0.29533390      -0.48358854       0.32431795       0.29533389      -0.48358855       0.32431796
O       12.31474781       7.18448019       1.15296602      -0.11013733       2.20191348       2.07962666      -0.11013733       2.20191360       2.07962656
H       -0.12838104       7.10997200       0.19616652       0.18368631       0.84006688      -0.01569093       0.18368632       0.84006691      -0.01569093
H       12.49043465       8.17340660       1.52839077      -0.38261360      -2.67981474      -2.00183022      -0.38261360      -2.67981482      -2.00183010
O        1.23278177       6.69361544       9.01575089      -2.40245954      -4.04851076      -1.80401467      -2.40245962      -4.04851055      -1.80401468